version 3
run General-0-20220104-18:06:25-3166
attr configname General
attr datetime 20220104-18:06:25
attr datetimef 20220104-180625
attr experiment General
attr inifile omnetpp.ini
attr iterationvars ""
attr iterationvarsd ""
attr iterationvarsf ""
attr measurement ""
attr network RfCommunication
attr processid 3166
attr repetition 0
attr replication #0
attr resultdir results
attr runnumber 0
attr seedset 0
config debug-on-errors true
config image-path ../../../../inet4.3/images
config network RfCommunication
config *.numberOfServiceNodes 3
config **.*.*.BERFilename "\"./BERDATA/RSC_M_2.txt\""
config **.*.*.standaloneRFNetwork true
config *.RfBaseNode.narrowbandRadio.centerFrequency "2450 MHz"
config *.RfBaseNode.narrowbandRadio.bandwidth "2.8 MHz"
config *.RfBaseNode.narrowbandRadio.headerLength "(1 *8 + 7 + 1) * 16us"
config **.transmitter.modulation "\"BPSK\""
config **.transmitter.bitrate 250kbps
config **.transmitter.power 2.24mW
config **.receiver.modulation "\"BPSK\""
config **.receiver.sensitivity -100dBm
config **.receiver.minInterferencePower -120dBm
config *.RfBaseNode.PHYLayerAbstraction.sendMsgOnInit true
config *.RfBaseNode.PHYLayerAbstraction.packetByteLength 100
config *.RfBaseNode.mobility.typename StationaryMobility
config *.RfBaseNode.mobility.mobilityModule "\"\""
config *.RfServiceNode.PHYLayerAbstraction.packetByteLength 90
config *.RfServiceNode.mobility.typename StationaryMobility

vector 0 RfCommunication.RfBaseNode.wlan.radio radioMode:vector ETV
attr interpolationmode sample-hold
attr source radioModeChanged
attr title "Radio mode, vector"
vector 1 RfCommunication.RfServiceNodeA.wlan.radio radioMode:vector ETV
attr interpolationmode sample-hold
attr source radioModeChanged
attr title "Radio mode, vector"
vector 2 RfCommunication.RfBaseNode.wlan.radio receptionState:vector ETV
attr interpolationmode sample-hold
attr source receptionStateChanged
attr title "Radio reception state, vector"
vector 3 RfCommunication.RfServiceNodeA.wlan.radio receptionState:vector ETV
attr interpolationmode sample-hold
attr source receptionStateChanged
attr title "Radio reception state, vector"
vector 4 RfCommunication.RfBaseNode.wlan.mac.queue packetPushed:vector(packetBytes) ETV
attr interpolationmode none
attr title "packet pushed, vector(packetBytes)"
vector 5 RfCommunication.RfBaseNode.wlan.mac.queue queueLength:vector ETV
attr autoWarmupFilter false
attr interpolationmode sample-hold
attr source "warmup(count(packetPushed) - count(packetPulled) - count(packetRemoved) - count(packetDropped))"
attr title "queue length, vector"
attr type int
vector 6 RfCommunication.RfBaseNode.wlan.radio transmissionState:vector ETV
attr interpolationmode sample-hold
attr source transmissionStateChanged
attr title "Radio transmission state, vector"
vector 7 RfCommunication.RfBaseNode.wlan.mac.queue packetPulled:vector(packetBytes) ETV
attr interpolationmode none
attr title "packet pulled, vector(packetBytes)"
vector 8 RfCommunication.RfBaseNode.wlan.mac.queue queueingTime:vector ETV
attr interpolationmode none
attr source queueingTime(packetPulled)
attr title "queueing times, vector"
attr unit s
vector 9 RfCommunication.RfServiceNodeA.wlan.mac.queue packetPushed:vector(packetBytes) ETV
attr interpolationmode none
attr title "packet pushed, vector(packetBytes)"
vector 10 RfCommunication.RfServiceNodeA.wlan.mac.queue queueLength:vector ETV
attr autoWarmupFilter false
attr interpolationmode sample-hold
attr source "warmup(count(packetPushed) - count(packetPulled) - count(packetRemoved) - count(packetDropped))"
attr title "queue length, vector"
attr type int
vector 11 RfCommunication.RfServiceNodeA.wlan.radio transmissionState:vector ETV
attr interpolationmode sample-hold
attr source transmissionStateChanged
attr title "Radio transmission state, vector"
vector 12 RfCommunication.RfServiceNodeA.wlan.mac.queue packetPulled:vector(packetBytes) ETV
attr interpolationmode none
attr title "packet pulled, vector(packetBytes)"
vector 13 RfCommunication.RfServiceNodeA.wlan.mac.queue queueingTime:vector ETV
attr interpolationmode none
attr source queueingTime(packetPulled)
attr title "queueing times, vector"
attr unit s
0	0	0	0
0	0	0	0
0	0	0	2
0	4	1.001088	3
0	7	1.00496	2
0	22	1.011296386934	3
0	26	1.015744386934	2
0	42	1.022432773868	3
0	46	1.026304773868	2
1	0	0	0
1	0	0	0
1	0	0	2
1	13	1.005408193467	3
1	16	1.009568193467	2
1	32	1.017152580401	3
1	36	1.020384580401	2
1	52	1.026432967335	3
2	0	0	1
2	4	1.001088	0
2	7	1.00496	1
2	15	1.005600386934	3
2	17	1.009568386934	1
2	22	1.011296386934	0
2	26	1.015744386934	1
2	34	1.017344773868	3
2	37	1.020384773868	1
2	42	1.022432773868	0
2	46	1.026304773868	1
3	0	0	1
3	6	1.001280193467	3
3	8	1.004960193467	1
3	13	1.005408193467	0
3	16	1.009568193467	1
3	24	1.011488580401	3
3	27	1.015744580401	1
3	32	1.017152580401	0
3	36	1.020384580401	1
3	44	1.022624967335	3
3	47	1.026304967335	1
3	52	1.026432967335	0
4	2	1	109
4	20	1.009568386934	109
4	40	1.020384773868	109
5	2	1	1
5	4	1.001088	0
5	20	1.009568386934	1
5	22	1.011296386934	0
5	40	1.020384773868	1
5	42	1.022432773868	0
6	4	1.001088	1
6	5	1.00128	2
6	7	1.00496	1
6	7	1.00496	0
6	22	1.011296386934	1
6	23	1.011488386934	2
6	26	1.015744386934	1
6	26	1.015744386934	0
6	42	1.022432773868	1
6	43	1.022624773868	2
6	46	1.026304773868	1
6	46	1.026304773868	0
7	4	1.001088	109
7	22	1.011296386934	109
7	42	1.022432773868	109
8	4	1.001088	0.001088
8	22	1.011296386934	0.001728
8	42	1.022432773868	0.002048
9	11	1.004960193467	109
9	30	1.015744580401	89
9	50	1.026304967335	89
10	11	1.004960193467	1
10	13	1.005408193467	0
10	30	1.015744580401	1
10	32	1.017152580401	0
10	50	1.026304967335	1
10	52	1.026432967335	0
11	13	1.005408193467	1
11	14	1.005600193467	2
11	16	1.009568193467	1
11	16	1.009568193467	0
11	32	1.017152580401	1
11	33	1.017344580401	2
11	36	1.020384580401	1
11	36	1.020384580401	0
11	52	1.026432967335	1
11	53	1.026624967335	2
12	13	1.005408193467	109
12	32	1.017152580401	89
12	52	1.026432967335	89
13	13	1.005408193467	0.000448
13	32	1.017152580401	0.001408
13	52	1.026432967335	0.000128
0	62	1.030433160802	3
0	65	1.034305160802	2
0	82	1.041953547736	3
0	86	1.045473547736	2
0	102	1.05056193467	3
0	105	1.05443393467	2
0	122	1.060770321604	3
0	126	1.064642321604	2
0	142	1.070978708538	3
0	146	1.074850708538	2
0	162	1.083427095472	3
0	166	1.087299095472	2
0	182	1.092355482406	3
0	185	1.096227482406	2
0	202	1.10256386934	3
0	206	1.10701186934	2
0	222	1.113924256274	3
0	226	1.118948256274	2
0	242	1.127076643208	3
0	246	1.132676643208	2
0	262	1.142341030142	3
0	266	1.146213030142	2
0	282	1.151621417076	3
0	285	1.155493417076	2
0	302	1.16278980401	3
0	306	1.16666180401	2
0	321	1.171750190944	3
0	325	1.175622190944	2
0	342	1.182310577878	3
0	346	1.186182577878	2
0	362	1.192230964812	3
0	365	1.195750964812	2
0	381	1.199879351746	3
0	385	1.203399351746	2
0	401	1.20810373868	3
0	405	1.21197573868	2
0	422	1.219592125614	3
0	426	1.224040125614	2
0	442	1.230408512548	3
0	446	1.234280512548	2
0	462	1.242216899482	3
0	466	1.246664899482	2
0	482	1.251753286416	3
0	485	1.255625286416	2
0	502	1.26260167335	3
0	506	1.26704967335	2
0	522	1.275242060284	3
0	526	1.280266060284	2
0	542	1.287114447218	3
0	546	1.292714447218	2
0	562	1.299402834152	3
0	566	1.303274834152	2
0	582	1.311531221086	3
0	586	1.315403221086	2
0	602	1.32173960802	3
0	606	1.32561160802	2
0	621	1.330347994954	3
0	625	1.334795994954	2
0	642	1.341388381888	3
0	646	1.345260381888	2
0	661	1.350956768822	3
0	666	1.355404768822	2
0	682	1.362637155756	3
0	686	1.367661155756	2
0	702	1.37706954269	3
0	706	1.38094154269	2
0	722	1.384749929624	3
0	725	1.388621929624	2
0	741	1.393390316558	3
0	745	1.396910316558	2
0	762	1.403278703492	3
0	766	1.407150703492	2
0	782	1.413167090426	3
0	786	1.417615090426	2
0	802	1.42420747736	3
0	806	1.42807947736	2
0	822	1.433775864294	3
0	826	1.438223864294	2
0	842	1.444496251228	3
0	846	1.449520251228	2
0	862	1.456048638162	3
0	866	1.459920638162	2
0	882	1.465329025096	3
0	885	1.469201025096	2
0	902	1.47457741203	3
0	905	1.47902541203	2
0	922	1.484977798964	3
0	925	1.488849798964	2
0	941	1.492978185898	3
0	945	1.496498185898	2
0	961	1.501906572832	3
0	965	1.505778572832	2
0	982	1.511826959766	3
0	985	1.515346959766	2
0	1002	1.5216513467	3
0	1006	1.5255233467	2
0	1022	1.529971733634	3
0	1025	1.533491733634	2
0	1041	1.537620120568	3
0	1045	1.541140120568	2
0	1062	1.547764507502	3
0	1066	1.551860507502	2
0	1082	1.559700894436	3
0	1086	1.563572894436	2
0	1102	1.57086928137	3
0	1106	1.57474128137	2
0	1122	1.582357668304	3
0	1126	1.586229668304	2
0	1142	1.590646055238	3
0	1145	1.594518055238	2
0	1161	1.599926442172	3
0	1165	1.603446442172	2
0	1182	1.610710829106	3
0	1186	1.614806829106	2
0	1202	1.62136721604	3
0	1206	1.62523921604	2
0	1221	1.629687602974	3
0	1225	1.633207602974	2
0	1242	1.638615989908	3
0	1245	1.642487989908	2
0	1262	1.648504376842	3
0	1265	1.652376376842	2
0	1282	1.658744763776	3
0	1285	1.662264763776	2
0	1302	1.66920915071	3
0	1306	1.67308115071	2
0	1322	1.679129537644	3
0	1325	1.683001537644	2
0	1342	1.690937924578	3
0	1346	1.694809924578	2
0	1362	1.701786311512	3
0	1366	1.705658311512	2
0	1382	1.712026698446	3
0	1386	1.715898698446	2
0	1402	1.72322708538	3
0	1406	1.72674708538	2
0	1422	1.734075472314	3
0	1426	1.737595472314	2
0	1441	1.741083859248	3
0	1445	1.744955859248	2
0	1461	1.750044246182	3
0	1465	1.753916246182	2
0	1482	1.762172633116	3
0	1486	1.766620633116	2
0	1502	1.77170902005	3
0	1505	1.77522902005	2
0	1522	1.781917406984	3
0	1526	1.785437406984	2
0	1542	1.792381793918	3
0	1546	1.796253793918	2
0	1562	1.801022180852	3
0	1565	1.804894180852	2
0	1582	1.810590567786	3
0	1585	1.814462567786	2
0	1602	1.81987095472	3
0	1605	1.82374295472	2
0	1622	1.830111341654	3
0	1626	1.833983341654	2
0	1642	1.841311728588	3
0	1646	1.844831728588	2
0	1662	1.851776115522	3
0	1666	1.855872115522	2
0	1681	1.860320502456	3
0	1685	1.864192502456	2
0	1701	1.86896088939	3
0	1705	1.87283288939	2
0	1722	1.878881276324	3
0	1725	1.882753276324	2
0	1742	1.888769663258	3
0	1746	1.893217663258	2
0	1761	1.898530050192	3
0	1766	1.903554050192	2
0	1782	1.909122437126	3
0	1786	1.914722437126	2
0	1802	1.91949082406	3
0	1805	1.92301082406	2
0	1822	1.929635210994	3
0	1826	1.933507210994	2
0	1842	1.940803597928	3
0	1846	1.945251597928	2
0	1862	1.951203984862	3
0	1866	1.956227984862	2
0	1882	1.964996371796	3
0	1886	1.968868371796	2
0	1902	1.97523675873	3
0	1906	1.97910875873	2
0	1922	1.985765145664	3
0	1926	1.989637145664	2
0	1942	1.997253532598	3
0	1946	2.001701532598	2
0	1962	2.008069919532	3
0	1966	2.011941919532	2
0	1982	2.017990306466	3
0	1985	2.021510306466	2
0	2001	2.0268546934	3
0	2005	2.0309506934	2
0	2022	2.038791080334	3
0	2026	2.043463080334	2
0	2042	2.048999467268	3
0	2045	2.052871467268	2
0	2061	2.058567854202	3
0	2066	2.063015854202	2
0	2082	2.068328241136	3
0	2085	2.072200241136	2
0	2102	2.07856862807	3
0	2105	2.08208862807	2
0	2122	2.088777015004	3
0	2126	2.092649015004	2
0	2142	2.098025401938	3
0	2145	2.102473401938	2
0	2162	2.109385788872	3
0	2166	2.113257788872	2
0	2182	2.120874175806	3
0	2186	2.124746175806	2
0	2202	2.13207456274	3
0	2206	2.13594656274	2
0	2222	2.141962949674	3
0	2226	2.146410949674	2
0	2242	2.151179336608	3
0	2245	2.155051336608	2
0	2262	2.160427723542	3
0	2265	2.164299723542	2
0	2282	2.171916110476	3
0	2286	2.175788110476	2
0	2302	2.18244449741	3
0	2306	2.18631649741	2
0	2322	2.191692884344	3
0	2325	2.195564884344	2
0	2342	2.201581271278	3
0	2346	2.206029271278	2
0	2362	2.213357658212	3
0	2366	2.217229658212	2
0	2382	2.224206045146	3
0	2386	2.228654045146	2
0	2402	2.23556643208	3
0	2406	2.23943843208	2
0	2422	2.244206819014	3
0	2425	2.247726819014	2
0	2442	2.253135205948	3
0	2445	2.256655205948	2
0	2462	2.262703592882	3
0	2465	2.266575592882	2
0	2482	2.272303979816	3
0	2485	2.275823979816	2
0	2502	2.28219236675	3
0	2505	2.28571236675	2
0	2522	2.292720753684	3
0	2526	2.296592753684	2
0	2542	2.302929140618	3
0	2546	2.307377140618	2
0	2561	2.312785527552	3
0	2565	2.316657527552	2
0	2582	2.322065914486	3
0	2585	2.325585914486	2
0	2602	2.33131430142	3
0	2605	2.33483430142	2
0	2621	2.338322688354	3
0	2625	2.341842688354	2
1	55	1.029664967335	2
1	72	1.036353354269	3
1	75	1.039585354269	2
1	92	1.045601741203	3
1	95	1.048833741203	2
1	112	1.056162128137	3
1	116	1.060322128137	2
1	132	1.065730515071	3
1	135	1.069890515071	2
1	152	1.076898902005	3
1	156	1.081058902005	2
1	172	1.088067288939	3
1	176	1.092227288939	2
1	192	1.097315675873	3
1	195	1.101475675873	2
1	212	1.109060062807	3
1	216	1.113796062807	2
1	232	1.119396449741	3
1	236	1.124708449741	2
1	253	1.135044836675	3
1	256	1.140932836675	2
1	272	1.147301223609	3
1	275	1.150533223609	2
1	292	1.157861610543	3
1	296	1.162021610543	2
1	312	1.166789997477	3
1	315	1.170021997477	2
1	332	1.177670384411	3
1	336	1.180902384411	2
1	352	1.188550771345	3
1	356	1.191782771345	2
1	372	1.196519158279	3
1	375	1.199751158279	2
1	391	1.203847545213	3
1	395	1.207655545213	2
1	411	1.213063932147	3
1	415	1.217223932147	2
1	432	1.226088319081	3
1	436	1.229320319081	2
1	452	1.236328706015	3
1	456	1.240488706015	2
1	472	1.247113092949	3
1	475	1.250345092949	2
1	492	1.257033479883	3
1	496	1.261193479883	2
1	512	1.269417866817	3
1	516	1.274153866817	2
1	532	1.281674253751	3
1	536	1.286986253751	2
1	552	1.295082640685	3
1	556	1.298314640685	2
1	572	1.305643027619	3
1	576	1.309803027619	2
1	592	1.317131414553	3
1	596	1.321291414553	2
1	612	1.326059801487	3
1	615	1.330219801487	2
1	632	1.336524188421	3
1	636	1.341260188421	2
1	652	1.346028575355	3
1	655	1.350188575355	2
1	672	1.357132962289	3
1	676	1.361868962289	2
1	692	1.369389349223	3
1	696	1.374701349223	2
1	712	1.381389736157	3
1	715	1.384621736157	2
1	731	1.389390123091	3
1	735	1.392622123091	2
1	752	1.399278510025	3
1	755	1.402510510025	2
1	772	1.407918896959	3
1	775	1.412078896959	2
1	792	1.418703283893	3
1	796	1.423439283893	2
1	812	1.429167670827	3
1	815	1.433327670827	2
1	832	1.439312057761	3
1	836	1.444048057761	2
1	852	1.449968444695	3
1	856	1.455280444695	2
1	872	1.461008831629	3
1	875	1.464240831629	2
1	892	1.470289218563	3
1	896	1.474449218563	2
1	911	1.479153605497	3
1	915	1.483889605497	2
1	932	1.489617992431	3
1	935	1.492849992431	2
1	951	1.496626379365	3
1	955	1.499858379365	2
1	972	1.507506766299	3
1	976	1.510738766299	2
1	992	1.516115153233	3
1	995	1.519923153233	2
1	1012	1.525651540167	3
1	1015	1.528883540167	2
1	1031	1.533619927101	3
1	1035	1.536851927101	2
1	1051	1.542548314035	3
1	1055	1.546356314035	2
1	1072	1.553908700969	3
1	1076	1.558292700969	2
1	1092	1.565301087903	3
1	1096	1.569461087903	2
1	1112	1.576469474837	3
1	1116	1.580629474837	2
1	1132	1.586357861771	3
1	1135	1.590517861771	2
1	1152	1.596246248705	3
1	1155	1.599478248705	2
1	1172	1.604854635639	3
1	1175	1.608662635639	2
1	1192	1.616535022573	3
1	1196	1.620919022573	2
1	1212	1.625367409507	3
1	1215	1.628599409507	2
1	1231	1.633655796441	3
1	1235	1.636887796441	2
1	1252	1.644216183375	3
1	1256	1.648376183375	2
1	1272	1.654744570309	3
1	1275	1.657976570309	2
1	1292	1.664312957243	3
1	1296	1.668120957243	2
1	1312	1.675449344177	3
1	1316	1.678681344177	2
1	1332	1.685369731111	3
1	1336	1.689529731111	2
1	1352	1.696538118045	3
1	1356	1.700698118045	2
1	1372	1.708026504979	3
1	1376	1.711258504979	2
1	1392	1.717946891913	3
1	1395	1.721178891913	2
1	1412	1.728475278847	3
1	1416	1.731707278847	2
1	1432	1.737723665781	3
1	1435	1.740955665781	2
1	1451	1.745724052715	3
1	1455	1.748956052715	2
1	1472	1.755644439649	3
1	1476	1.759804439649	2
1	1492	1.767388826583	3
1	1496	1.770620826583	2
1	1512	1.777597213517	3
1	1516	1.780829213517	2
1	1532	1.786845600451	3
1	1535	1.790653600451	2
1	1552	1.797341987385	3
1	1555	1.800573987385	2
1	1571	1.805342374319	3
1	1575	1.809502374319	2
1	1592	1.815230761253	3
1	1595	1.818462761253	2
1	1612	1.826111148187	3
1	1616	1.829343148187	2
1	1632	1.835711535121	3
1	1635	1.838943535121	2
1	1652	1.846559922055	3
1	1656	1.850367922055	2
1	1672	1.856640308989	3
1	1675	1.859872308989	2
1	1691	1.864320695923	3
1	1695	1.867552695923	2
1	1711	1.873921082857	3
1	1715	1.877153082857	2
1	1732	1.884481469791	3
1	1736	1.888641469791	2
1	1752	1.893345856725	3
1	1755	1.898081856725	2
1	1772	1.903682243659	3
1	1776	1.908994243659	2
1	1792	1.914850630593	3
1	1795	1.918082630593	2
1	1811	1.923459017527	3
1	1815	1.927267017527	2
1	1832	1.934595404461	3
1	1836	1.938755404461	2
1	1852	1.945699791395	3
1	1856	1.950435791395	2
1	1872	1.957956178329	3
1	1876	1.963268178329	2
1	1892	1.970596565263	3
1	1896	1.973828565263	2
1	1912	1.980836952197	3
1	1916	1.984996952197	2
1	1932	1.990725339131	3
1	1935	1.994885339131	2
1	1952	2.002789726065	3
1	1956	2.006021726065	2
1	1972	2.013990112999	3
1	1976	2.017222112999	2
1	1992	2.022598499933	3
1	1995	2.026406499933	2
1	2012	2.032678886867	3
1	2016	2.037062886867	2
1	2032	2.043911273801	3
1	2036	2.048871273801	2
1	2051	2.053319660735	3
1	2055	2.057479660735	2
1	2072	2.063464047669	3
1	2076	2.068200047669	2
1	2092	2.074568434603	3
1	2095	2.077800434603	2
1	2112	2.084136821537	3
1	2115	2.087368821537	2
1	2132	2.093737208471	3
1	2136	2.097897208471	2
1	2152	2.103561595405	3
1	2156	2.108297595405	2
1	2172	2.115625982339	3
1	2176	2.119785982339	2
1	2192	2.127114369273	3
1	2196	2.130346369273	2
1	2212	2.136394756207	3
1	2216	2.140554756207	2
1	2232	2.146539143141	3
1	2235	2.149771143141	2
1	2251	2.155499530075	3
1	2255	2.159659530075	2
1	2272	2.166347917009	3
1	2276	2.170507917009	2
1	2292	2.177196303943	3
1	2296	2.181356303943	2
1	2312	2.187404690877	3
1	2316	2.191564690877	2
1	2332	2.197293077811	3
1	2335	2.201453077811	2
1	2352	2.208397464745	3
1	2356	2.211629464745	2
1	2372	2.218637851679	3
1	2376	2.222797851679	2
1	2392	2.229422238613	3
1	2396	2.234158238613	2
1	2412	2.239886625547	3
1	2415	2.243118625547	2
1	2431	2.248175012481	3
1	2435	2.251407012481	2
1	2452	2.257743399415	3
1	2455	2.260975399415	2
1	2472	2.267663786349	3
1	2475	2.270895786349	2
1	2492	2.276592173283	3
1	2495	2.279824173283	2
1	2512	2.287760560217	3
1	2516	2.290992560217	2
1	2532	2.298640947151	3
1	2536	2.302800947151	2
1	2552	2.308785334085	3
1	2555	2.312017334085	2
1	2572	2.317425721019	3
1	2575	2.320657721019	2
1	2591	2.326034107953	3
1	2595	2.329266107953	2
1	2611	2.334962494887	3
1	2615	2.338194494887	2
2	54	1.026625160802	3
2	56	1.029665160802	1
2	62	1.030433160802	0
2	65	1.034305160802	1
2	74	1.036545547736	3
2	76	1.039585547736	1
2	82	1.041953547736	0
2	86	1.045473547736	1
2	94	1.04579393467	3
2	96	1.04883393467	1
2	102	1.05056193467	0
2	105	1.05443393467	1
2	114	1.056354321604	3
2	117	1.060322321604	1
2	122	1.060770321604	0
2	126	1.064642321604	1
2	134	1.065922708538	3
2	136	1.069890708538	1
2	142	1.070978708538	0
2	146	1.074850708538	1
2	154	1.077091095472	3
2	157	1.081059095472	1
2	162	1.083427095472	0
2	166	1.087299095472	1
2	174	1.088259482406	3
2	177	1.092227482406	1
2	182	1.092355482406	0
2	185	1.096227482406	1
2	194	1.09750786934	3
2	196	1.10147586934	1
2	202	1.10256386934	0
2	206	1.10701186934	1
2	214	1.109252256274	3
2	217	1.113796256274	1
2	222	1.113924256274	0
2	226	1.118948256274	1
2	234	1.119588643208	3
2	237	1.124708643208	1
2	242	1.127076643208	0
2	246	1.132676643208	1
2	255	1.135237030142	3
2	257	1.140933030142	1
2	262	1.142341030142	0
2	266	1.146213030142	1
2	274	1.147493417076	3
2	276	1.150533417076	1
2	282	1.151621417076	0
2	285	1.155493417076	1
2	294	1.15805380401	3
2	297	1.16202180401	1
2	302	1.16278980401	0
2	306	1.16666180401	1
2	314	1.166982190944	3
2	316	1.170022190944	1
2	321	1.171750190944	0
2	325	1.175622190944	1
2	334	1.177862577878	3
2	337	1.180902577878	1
2	342	1.182310577878	0
2	346	1.186182577878	1
2	354	1.188742964812	3
2	357	1.191782964812	1
2	362	1.192230964812	0
2	365	1.195750964812	1
2	374	1.196711351746	3
2	376	1.199751351746	1
2	381	1.199879351746	0
2	385	1.203399351746	1
2	393	1.20403973868	3
2	396	1.20765573868	1
2	401	1.20810373868	0
2	405	1.21197573868	1
2	413	1.213256125614	3
2	416	1.217224125614	1
2	422	1.219592125614	0
2	426	1.224040125614	1
2	434	1.226280512548	3
2	437	1.229320512548	1
2	442	1.230408512548	0
2	446	1.234280512548	1
2	454	1.236520899482	3
2	457	1.240488899482	1
2	462	1.242216899482	0
2	466	1.246664899482	1
2	474	1.247305286416	3
2	476	1.250345286416	1
2	482	1.251753286416	0
2	485	1.255625286416	1
2	494	1.25722567335	3
2	497	1.26119367335	1
2	502	1.26260167335	0
2	506	1.26704967335	1
2	514	1.269610060284	3
2	517	1.274154060284	1
2	522	1.275242060284	0
2	526	1.280266060284	1
2	534	1.281866447218	3
2	537	1.286986447218	1
2	542	1.287114447218	0
2	546	1.292714447218	1
2	554	1.295274834152	3
2	557	1.298314834152	1
2	562	1.299402834152	0
2	566	1.303274834152	1
2	574	1.305835221086	3
2	577	1.309803221086	1
2	582	1.311531221086	0
2	586	1.315403221086	1
2	594	1.31732360802	3
2	597	1.32129160802	1
2	602	1.32173960802	0
2	606	1.32561160802	1
2	614	1.326251994954	3
2	616	1.330219994954	1
2	621	1.330347994954	0
2	625	1.334795994954	1
2	634	1.336716381888	3
2	637	1.341260381888	1
2	642	1.341388381888	0
2	646	1.345260381888	1
2	654	1.346220768822	3
2	656	1.350188768822	1
2	661	1.350956768822	0
2	666	1.355404768822	1
2	674	1.357325155756	3
2	677	1.361869155756	1
2	682	1.362637155756	0
2	686	1.367661155756	1
2	694	1.36958154269	3
2	697	1.37470154269	1
2	702	1.37706954269	0
2	706	1.38094154269	1
2	714	1.381581929624	3
2	716	1.384621929624	1
2	722	1.384749929624	0
2	725	1.388621929624	1
2	733	1.389582316558	3
2	736	1.392622316558	1
2	741	1.393390316558	0
2	745	1.396910316558	1
2	754	1.399470703492	3
2	756	1.402510703492	1
2	762	1.403278703492	0
2	766	1.407150703492	1
2	774	1.408111090426	3
2	776	1.412079090426	1
2	782	1.413167090426	0
2	786	1.417615090426	1
2	794	1.41889547736	3
2	797	1.42343947736	1
2	802	1.42420747736	0
2	806	1.42807947736	1
2	814	1.429359864294	3
2	816	1.433327864294	1
2	822	1.433775864294	0
2	826	1.438223864294	1
2	834	1.439504251228	3
2	837	1.444048251228	1
2	842	1.444496251228	0
2	846	1.449520251228	1
2	854	1.450160638162	3
2	857	1.455280638162	1
2	862	1.456048638162	0
2	866	1.459920638162	1
2	874	1.461201025096	3
2	876	1.464241025096	1
2	882	1.465329025096	0
2	885	1.469201025096	1
2	894	1.47048141203	3
2	897	1.47444941203	1
2	902	1.47457741203	0
2	905	1.47902541203	1
2	914	1.479345798964	3
2	916	1.483889798964	1
2	922	1.484977798964	0
2	925	1.488849798964	1
2	934	1.489810185898	3
2	936	1.492850185898	1
2	941	1.492978185898	0
2	945	1.496498185898	1
2	953	1.496818572832	3
2	956	1.499858572832	1
2	961	1.501906572832	0
2	965	1.505778572832	1
2	974	1.507698959766	3
2	977	1.510738959766	1
2	982	1.511826959766	0
2	985	1.515346959766	1
2	994	1.5163073467	3
2	996	1.5199233467	1
2	1002	1.5216513467	0
2	1006	1.5255233467	1
2	1014	1.525843733634	3
2	1016	1.528883733634	1
2	1022	1.529971733634	0
2	1025	1.533491733634	1
2	1033	1.533812120568	3
2	1036	1.536852120568	1
2	1041	1.537620120568	0
2	1045	1.541140120568	1
2	1053	1.542740507502	3
2	1056	1.546356507502	1
2	1062	1.547764507502	0
2	1066	1.551860507502	1
2	1074	1.554100894436	3
2	1077	1.558292894436	1
2	1082	1.559700894436	0
2	1086	1.563572894436	1
2	1094	1.56549328137	3
2	1097	1.56946128137	1
2	1102	1.57086928137	0
2	1106	1.57474128137	1
2	1114	1.576661668304	3
2	1117	1.580629668304	1
2	1122	1.582357668304	0
2	1126	1.586229668304	1
2	1134	1.586550055238	3
2	1136	1.590518055238	1
2	1142	1.590646055238	0
2	1145	1.594518055238	1
2	1154	1.596438442172	3
2	1156	1.599478442172	1
2	1161	1.599926442172	0
2	1165	1.603446442172	1
2	1174	1.605046829106	3
2	1176	1.608662829106	1
2	1182	1.610710829106	0
2	1186	1.614806829106	1
2	1194	1.61672721604	3
2	1197	1.62091921604	1
2	1202	1.62136721604	0
2	1206	1.62523921604	1
2	1214	1.625559602974	3
2	1216	1.628599602974	1
2	1221	1.629687602974	0
2	1225	1.633207602974	1
2	1233	1.633847989908	3
2	1236	1.636887989908	1
2	1242	1.638615989908	0
2	1245	1.642487989908	1
2	1254	1.644408376842	3
2	1257	1.648376376842	1
2	1262	1.648504376842	0
2	1265	1.652376376842	1
2	1274	1.654936763776	3
2	1276	1.657976763776	1
2	1282	1.658744763776	0
2	1285	1.662264763776	1
2	1294	1.66450515071	3
2	1297	1.66812115071	1
2	1302	1.66920915071	0
2	1306	1.67308115071	1
2	1314	1.675641537644	3
2	1317	1.678681537644	1
2	1322	1.679129537644	0
2	1325	1.683001537644	1
2	1334	1.685561924578	3
2	1337	1.689529924578	1
2	1342	1.690937924578	0
2	1346	1.694809924578	1
2	1354	1.696730311512	3
2	1357	1.700698311512	1
2	1362	1.701786311512	0
2	1366	1.705658311512	1
2	1374	1.708218698446	3
2	1377	1.711258698446	1
2	1382	1.712026698446	0
2	1386	1.715898698446	1
2	1394	1.71813908538	3
2	1396	1.72117908538	1
2	1402	1.72322708538	0
2	1406	1.72674708538	1
2	1414	1.728667472314	3
2	1417	1.731707472314	1
2	1422	1.734075472314	0
2	1426	1.737595472314	1
2	1434	1.737915859248	3
2	1436	1.740955859248	1
2	1441	1.741083859248	0
2	1445	1.744955859248	1
2	1453	1.745916246182	3
2	1456	1.748956246182	1
2	1461	1.750044246182	0
2	1465	1.753916246182	1
2	1474	1.755836633116	3
2	1477	1.759804633116	1
2	1482	1.762172633116	0
2	1486	1.766620633116	1
2	1494	1.76758102005	3
2	1497	1.77062102005	1
2	1502	1.77170902005	0
2	1505	1.77522902005	1
2	1514	1.777789406984	3
2	1517	1.780829406984	1
2	1522	1.781917406984	0
2	1526	1.785437406984	1
2	1534	1.787037793918	3
2	1536	1.790653793918	1
2	1542	1.792381793918	0
2	1546	1.796253793918	1
2	1554	1.797534180852	3
2	1556	1.800574180852	1
2	1562	1.801022180852	0
2	1565	1.804894180852	1
2	1573	1.805534567786	3
2	1576	1.809502567786	1
2	1582	1.810590567786	0
2	1585	1.814462567786	1
2	1594	1.81542295472	3
2	1596	1.81846295472	1
2	1602	1.81987095472	0
2	1605	1.82374295472	1
2	1614	1.826303341654	3
2	1617	1.829343341654	1
2	1622	1.830111341654	0
2	1626	1.833983341654	1
2	1634	1.835903728588	3
2	1636	1.838943728588	1
2	1642	1.841311728588	0
2	1646	1.844831728588	1
2	1654	1.846752115522	3
2	1657	1.850368115522	1
2	1662	1.851776115522	0
2	1666	1.855872115522	1
2	1674	1.856832502456	3
2	1676	1.859872502456	1
2	1681	1.860320502456	0
2	1685	1.864192502456	1
2	1693	1.86451288939	3
2	1696	1.86755288939	1
2	1701	1.86896088939	0
2	1705	1.87283288939	1
2	1713	1.874113276324	3
2	1716	1.877153276324	1
2	1722	1.878881276324	0
2	1725	1.882753276324	1
2	1734	1.884673663258	3
2	1737	1.888641663258	1
2	1742	1.888769663258	0
2	1746	1.893217663258	1
2	1754	1.893538050192	3
2	1756	1.898082050192	1
2	1761	1.898530050192	0
2	1766	1.903554050192	1
2	1774	1.903874437126	3
2	1777	1.908994437126	1
2	1782	1.909122437126	0
2	1786	1.914722437126	1
2	1794	1.91504282406	3
2	1796	1.91808282406	1
2	1802	1.91949082406	0
2	1805	1.92301082406	1
2	1813	1.923651210994	3
2	1816	1.927267210994	1
2	1822	1.929635210994	0
2	1826	1.933507210994	1
2	1834	1.934787597928	3
2	1837	1.938755597928	1
2	1842	1.940803597928	0
2	1846	1.945251597928	1
2	1854	1.945891984862	3
2	1857	1.950435984862	1
2	1862	1.951203984862	0
2	1866	1.956227984862	1
2	1874	1.958148371796	3
2	1877	1.963268371796	1
2	1882	1.964996371796	0
2	1886	1.968868371796	1
2	1894	1.97078875873	3
2	1897	1.97382875873	1
2	1902	1.97523675873	0
2	1906	1.97910875873	1
2	1914	1.981029145664	3
2	1917	1.984997145664	1
2	1922	1.985765145664	0
2	1926	1.989637145664	1
2	1934	1.990917532598	3
2	1936	1.994885532598	1
2	1942	1.997253532598	0
2	1946	2.001701532598	1
2	1954	2.002981919532	3
2	1957	2.006021919532	1
2	1962	2.008069919532	0
2	1966	2.011941919532	1
2	1974	2.014182306466	3
2	1977	2.017222306466	1
2	1982	2.017990306466	0
2	1985	2.021510306466	1
2	1994	2.0227906934	3
2	1996	2.0264066934	1
2	2001	2.0268546934	0
2	2005	2.0309506934	1
2	2014	2.032871080334	3
2	2017	2.037063080334	1
2	2022	2.038791080334	0
2	2026	2.043463080334	1
2	2034	2.044103467268	3
2	2037	2.048871467268	1
2	2042	2.048999467268	0
2	2045	2.052871467268	1
2	2054	2.053511854202	3
2	2056	2.057479854202	1
2	2061	2.058567854202	0
2	2066	2.063015854202	1
2	2074	2.063656241136	3
2	2077	2.068200241136	1
2	2082	2.068328241136	0
2	2085	2.072200241136	1
2	2094	2.07476062807	3
2	2096	2.07780062807	1
2	2102	2.07856862807	0
2	2105	2.08208862807	1
2	2114	2.084329015004	3
2	2116	2.087369015004	1
2	2122	2.088777015004	0
2	2126	2.092649015004	1
2	2134	2.093929401938	3
2	2137	2.097897401938	1
2	2142	2.098025401938	0
2	2145	2.102473401938	1
2	2154	2.103753788872	3
2	2157	2.108297788872	1
2	2162	2.109385788872	0
2	2166	2.113257788872	1
2	2174	2.115818175806	3
2	2177	2.119786175806	1
2	2182	2.120874175806	0
2	2186	2.124746175806	1
2	2194	2.12730656274	3
2	2197	2.13034656274	1
2	2202	2.13207456274	0
2	2206	2.13594656274	1
2	2214	2.136586949674	3
2	2217	2.140554949674	1
2	2222	2.141962949674	0
2	2226	2.146410949674	1
2	2234	2.146731336608	3
2	2236	2.149771336608	1
2	2242	2.151179336608	0
2	2245	2.155051336608	1
2	2253	2.155691723542	3
2	2256	2.159659723542	1
2	2262	2.160427723542	0
2	2265	2.164299723542	1
2	2274	2.166540110476	3
2	2277	2.170508110476	1
2	2282	2.171916110476	0
2	2286	2.175788110476	1
2	2294	2.17738849741	3
2	2297	2.18135649741	1
2	2302	2.18244449741	0
2	2306	2.18631649741	1
2	2314	2.187596884344	3
2	2317	2.191564884344	1
2	2322	2.191692884344	0
2	2325	2.195564884344	1
2	2334	2.197485271278	3
2	2336	2.201453271278	1
2	2342	2.201581271278	0
2	2346	2.206029271278	1
2	2354	2.208589658212	3
2	2357	2.211629658212	1
2	2362	2.213357658212	0
2	2366	2.217229658212	1
2	2374	2.218830045146	3
2	2377	2.222798045146	1
2	2382	2.224206045146	0
2	2386	2.228654045146	1
2	2394	2.22961443208	3
2	2397	2.23415843208	1
2	2402	2.23556643208	0
2	2406	2.23943843208	1
2	2414	2.240078819014	3
2	2416	2.243118819014	1
2	2422	2.244206819014	0
2	2425	2.247726819014	1
2	2433	2.248367205948	3
2	2436	2.251407205948	1
2	2442	2.253135205948	0
2	2445	2.256655205948	1
2	2454	2.257935592882	3
2	2456	2.260975592882	1
2	2462	2.262703592882	0
2	2465	2.266575592882	1
2	2474	2.267855979816	3
2	2476	2.270895979816	1
2	2482	2.272303979816	0
2	2485	2.275823979816	1
2	2494	2.27678436675	3
2	2496	2.27982436675	1
2	2502	2.28219236675	0
2	2505	2.28571236675	1
2	2514	2.287952753684	3
2	2517	2.290992753684	1
2	2522	2.292720753684	0
2	2526	2.296592753684	1
2	2534	2.298833140618	3
2	2537	2.302801140618	1
2	2542	2.302929140618	0
2	2546	2.307377140618	1
2	2554	2.308977527552	3
2	2556	2.312017527552	1
2	2561	2.312785527552	0
2	2565	2.316657527552	1
2	2574	2.317617914486	3